! Ansys Lumerical
! Created: Thu Oct 6 20:47:38 2022
! Project File: C:/Users/jev1/Documents/GitHub/OTDR/PRL_PDK/CBand_TE0TE1_ysplitter_opt/Simulations/FDTD_SPara(run).fsp
! Touchstone File Format: Version 1.0
! Two-Port Data Order: 21_12
# HZ S MA R 50.00

! Optical Port List
! Port[0] = {"port 1","mode 1",1,"LEFT"}
! Port[1] = {"port 1","mode 2",2,"LEFT"}
! Port[2] = {"port 2","mode 1",1,"RIGHT"}
! Port[3] = {"port 3","mode 1",1,"RIGHT"}


! FREQ                 AMP                    PHASE                   AMP                    PHASE                   AMP                    PHASE                   AMP                    PHASE  
1.7634850470588234e+14 9.9991397020775516e-02 8.6883360610031790e+00 2.0003117742203517e-06 7.1893173191796933e+01 6.4030243903531059e-01 3.5998673039121584e+01 6.4029879855745897e-01 3.5998856638855116e+01
                       2.1217044679106377e-06 -1.0338029544746890e+02 3.8410240453207567e-02 -1.7245635953289610e+02 6.7656044549848471e-01 1.1119762242670586e+02 6.7656474039776593e-01 1.1119816968220448e+02
                       6.3909085032057511e-01 3.5795677071368111e+01 6.7532887181249601e-01 -6.8962165774954073e+01 4.3041963194142739e-02 -1.6997763516175704e+02 3.5032064985784303e-02 6.5363059153761682e+01
                       6.3908680579546029e-01 3.5795894295441414e+01 6.7533331120210782e-01 1.1103843556548652e+02 3.5032059912672449e-02 6.5363028647135181e+01 4.3042036743245901e-02 -1.6996582464333832e+02
1.7672639435882353e+14 9.7555020795130690e-02 1.7727852582631130e+01 2.1925265740406684e-06 7.5499613407178629e+01 6.4218257305138993e-01 4.1313469041249363e+01 6.4217863820503285e-01 4.1313647617476647e+01
                       2.2751205284441074e-06 -9.9906137661749582e+01 3.7540983265139237e-02 -1.6384527388197998e+02 6.7732384244511323e-01 1.1683877098078845e+02 6.7732805433590959e-01 1.1683929711550159e+02
                       6.4087305879898726e-01 4.1127207869238298e+01 6.7633218374553261e-01 -6.3323450975453014e+01 4.2427577466539752e-02 -1.6451126820546995e+02 3.2694492802345973e-02 7.5343794411334954e+01
                       6.4086865459683484e-01 4.1127414324587164e+01 6.7633650194194683e-01 1.1667712304728774e+02 3.2694487534280094e-02 7.5343761162317094e+01 4.2426758896209935e-02 -1.6449975239151877e+02
1.7710428401176469e+14 9.4980507020318211e-02 2.6779673446055000e+01 2.3589195492877431e-06 7.8942602611702213e+01 6.4407323656462756e-01 4.6647061583436091e+01 6.4406902906406815e-01 4.6647230339394099e+01
                       2.4034480141869118e-06 -9.6720369594406506e+01 3.6327632507484581e-02 -1.5520164309032526e+02 6.7808730508262127e-01 1.2247374269403943e+02 6.7809147657895885e-01 1.2247424884672095e+02
                       6.4262594013399732e-01 4.6473818007818444e+01 6.7733849172329830e-01 -5.7686434818559214e+01 4.1439311728863656e-02 -1.5920176076741598e+02 3.0287930111638169e-02 8.5680866889496642e+01
                       6.4262121677141348e-01 4.6474007169114444e+01 6.7734274963287955e-01 1.2231411275968669e+02 3.0287924786025055e-02 8.5680831618129929e+01 4.1437646481890154e-02 -1.5919058056027197e+02
1.7748217366470588e+14 9.2319362638545191e-02 3.5858218770071609e+01 2.5063996563973765e-06 8.2171404802373132e+01 6.4594074089750719e-01 5.1999168263013587e+01 6.4593629045097389e-01 5.1999323025519011e+01
                       2.5155229643243854e-06 -9.3852990844602786e+01 3.4795796625524726e-02 -1.4647374173531398e+02 6.7887455379305683e-01 1.2810394954033086e+02 6.7887872176515340e-01 1.2810443753990856e+02
                       6.4433278684101536e-01 5.1833909857082013e+01 6.7835824015339985e-01 -5.2049851789893232e+01 4.0123155357885541e-02 -1.5408775678870094e+02 2.7850605457826118e-02 9.6482838621110062e+01
                       6.4432779922415184e-01 5.1834076414053065e+01 6.7836249283490280e-01 1.2795067132109547e+02 2.7850600112026860e-02 9.6482802280093239e+01 4.0120701047453577e-02 -1.5407696611249511e+02
1.7786006331764706e+14 8.9624142823635344e-02 4.4977679629641216e+01 2.6422801727810285e-06 8.5213415233829025e+01 6.4775319649485419e-01 5.7369029274643161e+01 6.4774853928698140e-01 5.7369166535440186e+01
                       2.6203443154637879e-06 -9.1250486601474492e+01 3.2979890831455597e-02 -1.3760684147716020e+02 6.7970196822429496e-01 1.3373118307315548e+02 6.7970616242686255e-01 1.3373165526561957e+02
                       6.4598390626708380e-01 5.7206116192407464e+01 6.7939531147797372e-01 -4.6412356347668755e+01 3.8533089483607244e-02 -1.4920732738944179e+02 2.5426925233545832e-02 1.0788359670965204e+02
                       6.4597871950302654e-01 5.7206256278592008e+01 6.7939960536823563e-01 1.3358814517592154e+02 2.5426919824510587e-02 1.0788356050812587e+02 3.8529914328919349e-02 -1.4919699486673628e+02
1.7823795297058822e+14 8.6947381706777682e-02 5.4151705423669910e+01 2.7729313092639966e-06 8.8152785304480076e+01 6.4948123604671482e-01 6.2755481076121029e+01 6.4947641337027118e-01 6.2755598010368509e+01
                       2.7254621397754358e-06 -8.8793655161540158e+01 3.0922897340586317e-02 -1.2853766401697507e+02 6.8057817938460463e-01 1.3935740342172099e+02 6.8058242169232996e-01 1.3935786248893601e+02
                       6.4757375962356933e-01 6.2589498294894433e+01 6.8044773038486051e-01 -4.0772709422143542e+01 3.6728300590288088e-02 -1.4459547072479481e+02 2.3069275881885870e-02 1.2004653140123047e+02
                       6.4756844429049643e-01 6.2589609595200344e+01 6.8045210131881106e-01 1.3922777405116690e+02 2.3069270324483512e-02 1.2004649684038142e+02 3.6724481366791621e-02 -1.4458568149990640e+02
1.7861584262352941e+14 8.4340583280182208e-02 6.3393001992438137e+01 2.9025853040387306e-06 9.1106786668013768e+01 6.5109848044505680e-01 6.8157031139183260e+01 6.5109353747352761e-01 6.8157125610888130e+01
                       2.8355826652578941e-06 -8.6325233988419214e+01 2.8675907578657643e-02 -1.1918748974847271e+02 6.8150438680836423e-01 1.4498454341210100e+02 6.8150869101169087e-01 1.4498499219641545e+02
                       6.4909751630098311e-01 6.7983605247262972e+01 6.8150897942504496e-01 -3.5129914330785660e+01 3.4769578073736471e-02 -1.4028107140890759e+02 2.0840055886716252e-02 1.3316291608786449e+02
                       6.4909214364651602e-01 6.7983686976280083e+01 6.8151345154323739e-01 1.4487055501955379e+02 2.0840050109892407e-02 1.3316288500356916e+02 3.4765197707499508e-02 -1.4027192890645895e+02
1.7899373227647059e+14 8.1853240120166856e-02 7.2712850310182574e+01 3.0325738423312964e-06 9.4199234641758437e+01 6.5258177289095598e-01 7.3571925627290639e+01 6.5257675755377065e-01 7.3571996188499455e+01
                       2.9517686426582647e-06 -8.3684752679421635e+01 2.6297607182583213e-02 -1.0945342326758988e+02 6.8247526830220517e-01 1.5061434371625523e+02 6.8247964037882169e-01 1.5061478506184176e+02
                       6.5054771268428191e-01 7.3388389526345179e+01 6.8256962525316944e-01 -2.9483292171888454e+01 3.2715120021211123e-02 -1.3628363625392510e+02 1.8813302044007611e-02 1.4743449873634879e+02
                       6.5054235024136131e-01 7.3388442283515531e+01 6.8257421080517955e-01 1.5051716710716994e+02 1.8813296059873447e-02 1.4743447331064030e+02 3.2710264990301670e-02 -1.3627526370944517e+02
1.7937162192941175e+14 7.9531847203470743e-02 8.2120569220017543e+01 3.1611778910196070e-06 9.7536310300427260e+01 6.5391124002368450e-01 7.8998203633587991e+01 6.5390620193383353e-01 7.8998249520801807e+01
                       3.0714451398478769e-06 -8.0740336698118000e+01 2.3853999230664717e-02 -9.9197532699280885e+01 6.8348031074760540e-01 1.5624822956993148e+02 6.8348474950409865e-01 1.5624866618814278e+02
                       6.5191168025850765e-01 7.8803998574194850e+01 6.8361895400877826e-01 -2.3832498038587367e+01 3.0616127137494099e-02 -1.3261052131320537e+02 1.7074093371222596e-02 1.6302331973032977e+02
                       6.5190638832321546e-01 7.8804024096830602e+01 6.8362365397805536e-01 1.5616795510175851e+02 1.7074087344080491e-02 1.6302330236084072e+02 3.0610884883272908e-02 -1.3260306315347950e+02
1.7974951158235294e+14 7.7418885440282997e-02 9.1622964323588732e+01 3.2840724537793325e-06 1.0119082522376020e+02 6.5507026459352180e-01 8.4433734426935530e+01 6.5506525398104598e-01 8.4433755555227791e+01
                       3.1891249950238429e-06 -7.7407552485371511e+01 2.1418773039216250e-02 -8.8234586522011796e+01 6.8450537597303718e-01 1.6188723375057020e+02 6.8450987394695229e-01 1.6188766811289645e+02
                       6.5317027245591275e-01 8.4230483247575364e+01 6.8464636632617393e-01 -1.8177488952150426e+01 2.8512744632011183e-02 -1.2925582935499031e+02 1.5712070682370322e-02 1.7995300354086260e+02
                       6.5316510176176190e-01 8.4230484095910455e+01 6.8465117173208467e-01 1.6182296165860507e+02 1.5712064969013083e-02 1.7995299638034680e+02 2.8507201245636424e-02 -1.2924945307060588e+02
1.8012740123529412e+14 7.5551764209666472e-02 1.0122382657924848e+02 3.3951713844983511e-06 1.0519734737199717e+02 6.5604546663276531e-01 8.9876237648927855e+01 6.5604053325267042e-01 8.9876234602098918e+01
                       3.2975402998657087e-06 -7.3652431764608878e+01 1.9074726467672793e-02 -7.6322339072436662e+01 6.8553432418558291e-01 1.6753196504889812e+02 6.8553886870770853e-01 1.6753239930796232e+02
                       6.5429819508912124e-01 8.9667478265597481e+01 6.8564237220366442e-01 -1.2518460564855328e+01 2.6431064683558124e-02 -1.2620250453406781e+02 1.4804724370432504e-02 1.9798071308928257e+02
                       6.5429318584945240e-01 8.9667457482971599e+01 6.8564726588809588e-01 1.6748199064802549e+02 1.4804719486332062e-02 1.9798071717536936e+02 2.6425303230721175e-02 -1.2619740465520917e+02
1.8050529088823528e+14 7.3961732688573742e-02 1.1092356268870235e+02 3.4876106976575636e-06 1.0955620797945878e+02 6.5682678578922271e-01 9.5323290090247554e+01 6.5682197779303908e-01 9.5323264104240366e+01
                       3.3888260182089014e-06 -6.9482919495274331e+01 1.6916262395206071e-02 -6.3166785243229675e+01 6.8655054388057857e-01 1.7318261710321863e+02 6.8655511821543869e-01 1.7318305304005034e+02
                       6.5526596945538462e-01 9.5113914519285160e+01 6.8659913157874430e-01 -6.8557716126954054e+00 2.4381939054082442e-02 -1.2342915033496567e+02 1.4391389651596113e-02 2.1653789263683470e+02
                       6.5526115175313004e-01 9.5113875313192636e+01 6.8660409026248415e-01 1.7314468275794303e+02 1.4391386135130005e-02 2.1653790705132377e+02 2.4376039030436464e-02 -1.2342555744905233e+02
1.8088318054117647e+14 7.2672793524271737e-02 1.2071904593116744e+02 3.5546525372735486e-06 1.1424221185489833e+02 6.5740773561843924e-01 1.0077232598704583e+02 6.5740309839945932e-01 1.0077227892371207e+02
                       3.4555090954684438e-06 -6.4935520978745458e+01 1.5051514383188906e-02 -4.8472056230570374e+01 6.8753827452244121e-01 1.7883900958409723e+02 6.8754285902564161e-01 1.7883944857880755e+02
                       6.5604327787840133e-01 1.0056781774396009e+02 6.8751058455497738e-01 -1.1898729900575638e+00 2.2362185625498809e-02 -1.2092267790562428e+02 1.4451482722440987e-02 2.3486379794979624e+02
                       6.5603867319111042e-01 1.0056776322929394e+02 6.8751558095330634e-01 1.7881058647343372e+02 1.4451480952441687e-02 2.3486381989472346e+02 2.2356224173853578e-02 -1.2092087721697179e+02
1.8126107019411762e+14 7.1700675764866148e-02 1.3060376098031404e+02 3.5903851048889561e-06 1.1921422475644800e+02 6.5778586332123168e-01 1.0622064017074463e+02 6.5778143836014813e-01 1.0622057447963749e+02
                       3.4911991147659940e-06 -6.0062402320261995e+01 1.3599106832056198e-02 -3.2082607130211336e+01 6.8848364928801320e-01 1.8450065236925809e+02 6.8848822253683106e-01 1.8450109539204558e+02
                       6.5660320584526544e-01 1.0602623397100875e+02 6.8837228660210614e-01 4.4787467926378106e+00 2.0358399444048561e-02 -1.1869742408929656e+02 1.4905612689166584e-02 2.5229042448470415e+02
                       6.5659882933404512e-01 1.0602616700608966e+02 6.8837729141581983e-01 1.8447921266725345e+02 1.4905612780105498e-02 2.5229045045432150e+02 2.0352455108247777e-02 -1.1869778988176137e+02
1.8163895984705881e+14 7.1051942611043764e-02 1.4056827407962467e+02 3.5901789384995860e-06 1.2442336738066794e+02 6.5796340057882519e-01 1.1166540443542200e+02 6.5795922432683129e-01 1.1166532310224989e+02
                       3.4909797489720151e-06 -5.4921445920230497e+01 1.2670104326229491e-02 -1.4228624913862630e+01 6.8937542368317506e-01 1.9016682330540911e+02 6.8937996354821740e-01 1.9016727092519878e+02
                       6.5692674037330800e-01 1.1148530230692604e+02 6.8918109771195568e-01 1.0149594584488071e+01 1.8353147120387010e-02 -1.1682176600494122e+02 1.5640712747136170e-02 2.6845091349294103e+02
                       6.5692260346247588e-01 1.1148522543772836e+02 6.8918608135287307e-01 1.9015006761391547e+02 1.5640714580467754e-02 2.6845094054109347e+02 1.8347307161549364e-02 -1.1682482112451729e+02
1.8201684950000000e+14 7.0723319352321470e-02 1.5060099551272094e+02 3.5509134491168403e-06 1.2981902044427099e+02 6.5794803979251015e-01 1.1710370688647821e+02 6.5794414263257350e-01 1.1710361336783645e+02
                       3.4515504122549453e-06 -4.9569701526582818e+01 1.2330204867690769e-02 4.2945585554475434e+00 6.9020538795838837e-01 1.9583665102823807e+02 6.9020987258843558e-01 1.9583710343676654e+02
                       6.5700683192752729e-01 1.1694047353348300e+02 6.8993486907099288e-01 1.5822185240384652e+01 1.6333127434105626e-02 -1.1545568971830760e+02 1.6540146387068036e-02 2.8328176132053727e+02
                       6.5700294467232112e-01 1.1694038904435833e+02 6.8993980303232794e-01 1.9582266566284085e+02 1.6540149717680145e-02 2.8328178759005709e+02 1.6327500407472214e-02 -1.1546220368255946e+02
1.8239473915294116e+14 7.0701325112963079e-02 1.6068913156462685e+02 3.4710123094203540e-06 1.3535272237509713e+02 6.5775372327214976e-01 1.2253262174731343e+02 6.5775012859760618e-01 1.2253251989206777e+02
                       3.3711820195010739e-06 -4.4059714576536592e+01 1.2562496989949549e-02 2.2337231893737190e+01 6.9096848542076461e-01 2.0150919568991452e+02 6.9097289411192853e-01 2.0150965273934654e+02
                       6.5685138027338130e-01 1.2238685213231093e+02 6.9063223344592861e-01 2.1496040094742416e+01 1.4299282150139144e-02 -1.1490818724921724e+02 1.7502621414795236e-02 2.9690431391195955e+02
                       6.5684775305945886e-01 1.2238676218496882e+02 6.9063709128055395e-01 2.0149652772682967e+02 1.7502625968736616e-02 2.9690433853160988e+02 1.4294019137965399e-02 -1.1491933068366535e+02
1.8277262880588234e+14 7.0962278601977749e-02 1.7081967242231244e+02 3.3503337189306682e-06 1.4098036215730852e+02 6.5740129872571273e-01 1.2794931329816079e+02 6.5739802217088972e-01 1.2794920725627489e+02
                       3.2495490512686337e-06 -3.8438026380132328e+01 1.3269146401245961e-02 3.8954130915437950e+01 6.9166267536810278e-01 2.0718352198729679e+02 6.9166698928569115e-01 2.0718398323927175e+02
                       6.5648465069936446e-01 1.2781962213951556e+02 6.9127254903955526e-01 2.7170679995757311e+01 1.2280237204432512e-02 -1.1573065599579841e+02 1.8448315344928568e-02 3.0950912590216899e+02
                       6.5648129493282525e-01 1.2781952896816153e+02 6.9127730695717138e-01 2.0717117431978045e+02 1.8448320873846482e-02 3.0950914868289448e+02 1.2275568510435706e-02 -1.1574821121105806e+02
1.8315051845882353e+14 7.1472725521506589e-02 1.8098025116895573e+02 3.1899615653880162e-06 1.4666304946849917e+02 6.5691887944571981e-01 1.3335117268759674e+02 6.5691592829861778e-01 1.3335106680733537e+02
                       3.0874934962292653e-06 -3.2745325835727996e+01 1.4314276233634024e-02 5.3758437020670428e+01 6.9228858995204456e-01 2.1285876038570589e+02 6.9229279267323918e-01 2.1285922516905359e+02
                       6.5594684260681235e-01 1.3323450535245127e+02 6.9185598625765188e-01 3.2845621620418747e+01 1.0353213136395945e-02 -1.1885661681451047e+02 1.9317787298356513e-02 3.2128854974110635e+02
                       6.5594377022156580e-01 1.3323441147343661e+02 6.9186062339097121e-01 2.1284612186579005e+02 1.9317793594834286e-02 3.2128857091224671e+02 1.0349510560318418e-02 -1.1888308794745221e+02
1.8352840811176469e+14 7.2190307923173699e-02 1.9115974267234219e+02 2.9919413910247622e-06 1.5236685490205423e+02 6.5634175611283230e-01 1.3873598085817966e+02 6.5633912893670809e-01 1.3873587957268023e+02
                       2.8867687888444011e-06 -2.7018064415638047e+01 1.5568001491894445e-02 6.6830034939235304e+01 6.9284904050633656e-01 2.1853415381560998e+02 6.9285311835738628e-01 2.1853462128902402e+02
                       6.5529178740834926e-01 1.3862819481527055e+02 6.9238369691850921e-01 3.8520383505854035e+01 8.6788795250456116e-03 -1.2568733509130921e+02 2.0068531305820293e-02 3.3240924001058914e+02
                       6.5528900921690458e-01 1.3862810320562221e+02 6.9238819533597007e-01 2.1852088871784198e+02 2.0068538195050313e-02 3.3240926004242232e+02 8.6767359320440475e-03 -1.2572505817931844e+02
1.8390629776470588e+14 7.3065067825963503e-02 2.0134853680979370e+02 2.7590025088445117e-06 1.5806132323276049e+02 6.5571174013463995e-01 1.4410208545949232e+02 6.5570942662420006e-01 1.4410199316394531e+02
                       2.6498039735649108e-06 -2.1291794868012637e+01 1.6926270603132062e-02 7.8458833773083228e+01 6.9334843195181217e-01 2.2420908839838140e+02 6.9335237412657869e-01 2.2420955761341136e+02
                       6.5458301336669134e-01 1.4399870784107662e+02 6.9285797664169757e-01 4.4194504438622189e+01 7.5398593795854216e-03 -1.3749426933680186e+02 2.0671506538411624e-02 3.4300608957022627e+02
                       6.5458053648428316e-01 1.4399862204277184e+02 6.9286232119874291e-01 2.2419501353070925e+02 2.0671513860377036e-02 3.4300610905905694e+02 7.5400390787295360e-03 -1.3754098828234876e+02
1.8428418741764706e+14 7.4041151526654844e-02 2.1153849364100040e+02 2.4943041956569715e-06 1.6371621319166763e+02 6.5507587324959171e-01 1.4944857514503565e+02 6.5507385434716592e-01 1.4944849606639383e+02
                       2.3795194633098390e-06 -1.5607251664928089e+01 1.8311697865042248e-02 8.8965265786414236e+01 6.9379214420708357e-01 2.2988310798325895e+02 6.9379594267379219e-01 2.2988357794243908e+02
                       6.5388864642969491e-01 1.4934561146407682e+02 6.9328232874405704e-01 4.9867572566527080e+01 7.2798128781900277e-03 -1.5297961983728914e+02 2.1108347825502638e-02 3.5318499106734987e+02
                       6.5388647118044763e-01 1.4934553558035174e+02 6.9328650686657578e-01 2.2986808435568105e+02 2.1108355418048536e-02 3.5318501065532831e+02 7.2826847040134354e-03 -1.5302273941523174e+02
1.8466207707058822e+14 7.5058858156545838e-02 2.2172264529461972e+02 2.2012386288569629e-06 1.6929501517232521e+02 6.5448450859236484e-01 1.5477543180382352e+02 6.5448275688758140e-01 1.5477536986618551e+02
                       2.0792162825172092e-06 -1.0021918077410877e+01 1.9667607589318872e-02 9.8625773560822267e+01 6.9418593677161944e-01 2.3555591348165302e+02 6.9418958599868297e-01 2.3555638318672899e+02
                       6.5327578425784316e-01 1.5467008897813560e+02 6.9366136095244957e-01 5.5539259905195934e+01 8.0160197763972079e-03 -1.6704605117385233e+02 2.1369275503834408e-02 3.6302819632682366e+02
                       6.5327390109541861e-01 1.5467002754405749e+02 6.9366536243574461e-01 2.3553977313209995e+02 2.1369283193220998e-02 3.6302821664102407e+02 8.0209269221597022e-03 -1.6707317873098842e+02
1.8503996672352941e+14 7.6056956090397712e-02 2.3189473774363688e+02 1.8833161065894725e-06 1.7474146758276473e+02 6.5398884562111692e-01 1.6008364068125320e+02 6.5398732605131804e-01 1.6008359937174279e+02
                       1.7525538896429354e-06 -4.6347264527306944e+00 2.0951958508927501e-02 1.0765671075760689e+02 6.9453542615998076e-01 2.4122734914183005e+02 6.9453892271525230e-01 2.4122781762802998e+02
                       6.5280505647901710e-01 1.5997483783835537e+02 6.9400048776995504e-01 6.1209354682964076e+01 9.4962910518537075e-03 -1.7598124702448709e+02 2.1451528011917256e-02 3.7259975801771913e+02
                       6.5280344349728869e-01 1.5997479556863470e+02 6.9400430465672502e-01 2.4120986802140956e+02 2.1451535613814472e-02 3.7259977962377735e+02 9.5021794726248641e-03 -1.7599293253543249e+02
1.8541785637647059e+14 7.6975173850186679e-02 2.4204870577463097e+02 1.5441527265908256e-06 1.7994795696392325e+02 6.5363807482034397e-01 1.6537524038172552e+02 6.5363674567611652e-01 1.6537522262349452e+02
                       1.4036404173045970e-06 3.5169906409569429e-01 2.2133036022908188e-02 1.1622038098412050e+02 6.9484567519998996e-01 2.4689737892767872e+02 6.9484901729574167e-01 2.4689784528176943e+02
                       6.5252604971557260e-01 1.6526381387684904e+02 6.9430546043849284e-01 6.6877783700242389e+01 1.1370328862127348e-02 -1.8002343094966164e+02 2.1358130621687978e-02 3.8195025912683673e+02
                       6.5252467127218494e-01 1.6526379531623567e+02 6.9430908701290661e-01 2.4687829576125188e+02 2.1358137952185989e-02 3.8195028249841323e+02 1.1376484129980971e-02 -1.8002537045512057e+02
1.8579574602941175e+14 7.7756758992828065e-02 2.5217815577709521e+02 1.1875947740808929e-06 1.8466633236195167e+02 6.5347634752571715e-01 1.7065329946123657e+02 6.5347516174601950e-01 1.7065330750166592e+02
                       1.0373435840370138e-06 4.4346016061957174e+00 2.3186846540381171e-02 1.2443647823226755e+02 6.9512091856049874e-01 2.5256605691544391e+02 6.9512410562445326e-01 2.5256652027768521e+02
                       6.5247413065498883e-01 1.7054186024795456e+02 6.9458179077147253e-01 7.2544618584820000e+01 1.3383964344216515e-02 -1.8069253499840698e+02 2.1096856263600455e-02 3.9112072398207141e+02
                       6.5247293748347091e-01 1.7054186936928602e+02 6.9458522367703635e-01 2.5254512792151905e+02 2.1096863157052701e-02 3.9112074948943854e+02 1.3390017332542961e-02 -1.8068904938106024e+02
1.8617363568235294e+14 7.8350990592148048e-02 2.6227590554341884e+02 8.1814990058428101e-07 1.8817508203917760e+02 6.5353982281380907e-01 1.7592181333579759e+02 6.5353872952999348e-01 1.7592184865853179e+02
                       6.6052181813913217e-07 5.9392453718121034e+00 2.4095673162133697e-02 1.3239304305139041e+02 6.9536443133951209e-01 2.5823349596058529e+02 6.9536746368764291e-01 2.5823395551326718e+02
                       6.5266896574503930e-01 1.7581427686179060e+02 6.9483416399155795e-01 7.8210063042181702e+01 1.5379133184070056e-02 -1.7922231242181377e+02 2.0679282807326737e-02 4.0014583458297966e+02
                       6.5266789670997716e-01 1.7581431666947378e+02 6.9483740245200443e-01 2.5821056816097911e+02 2.0679289136151278e-02 4.0014586250353796e+02 1.5384898103296652e-02 -1.7921586238570973e+02
1.8655152533529412e+14 7.8715529756789651e-02 2.7233360790739027e+02 4.4319481312517916e-07 1.8725870001117923e+02 6.5385405142736652e-01 1.8118552373861195e+02 6.5385299768886074e-01 1.8118558700732586e+02
                       2.9247696821236852e-07 -5.3808008995678396e+00 2.4847276214291069e-02 1.4015544809476646e+02 6.9557852908186368e-01 2.6389983870854701e+02 6.9558140775106259e-01 2.6390029365610553e+02
                       6.5311475402459196e-01 1.8108639314315522e+02 6.9506594258199561e-01 8.3874422129441356e+01 1.7256470366944394e-02 -1.7640449955265160e+02 2.0119892610921536e-02 4.0905662302121527e+02
                       6.5311373941669804e-01 1.8108646534241353e+02 6.9506898868030575e-01 2.6387492151180862e+02 2.0119898302114973e-02 4.0905665357290195e+02 1.7261849117210178e-02 -1.7639641760892434e+02
1.8692941498823528e+14 7.8818498806355150e-02 2.8234147152529158e+02 1.2244253927485780e-07 1.3764224649532659e+02 6.5443193442113834e-01 1.8644967178223314e+02 6.5443086701264330e-01 1.8644976282187207e+02
                       2.0747233092515906e-07 -1.0217305624496944e+02 2.5434360816572524e-02 1.4777338795829849e+02 6.9576467075103221e-01 2.6956523429709671e+02 6.9576739752114458e-01 2.6956568384442414e+02
                       6.5380191495529905e-01 1.8636320184238244e+02 6.9527884700191556e-01 8.9538058290577439e+01 1.8951604975104137e-02 -1.7273165960441267e+02 1.9435193049148747e-02 4.1788279301859569e+02
                       6.5380088097573830e-01 1.8636330662609743e+02 6.9528170595565131e-01 2.6953855042784795e+02 1.9435198093169112e-02 4.1788282641484926e+02 1.8956544339628654e-02 -1.7272267750807902e+02
1.8730730464117647e+14 7.8640192585996735e-02 2.9228808954269488e+02 3.6694766249555178e-07 5.3042435069933489e+01 6.5527244424289244e-01 1.9171970346828954e+02 6.5527131148866491e-01 1.9171982128615733e+02
                       5.5673923404436782e-07 -1.2631591858995735e+02 2.5854072586467942e-02 1.5528621014308590e+02 6.9592362361812010e-01 2.7522982288708783e+02 6.9592620121755056e-01 2.7523026622323295e+02
                       6.5470976048386498e-01 1.9164909544684551e+02 6.9547286421415122e-01 9.5201341539180717e+01 2.0423349480266383e-02 -1.6851803716018779e+02 1.8642862270465622e-02 4.2665478868405825e+02
                       6.5470863437493299e-01 1.9164923143397030e+02 6.9547554457737415e-01 2.7520182498057426e+02 1.8642866719981784e-02 4.2665482520686561e+02 2.0427822388657670e-02 -1.6850856773287327e+02
1.8768519429411762e+14 7.8174342849028258e-02 3.0216039506499629e+02 7.4094107132975806e-07 4.9823440017281278e+01 6.5636022501133096e-01 1.9700095196813461e+02 6.5635897845985869e-01 1.9700109481316724e+02
                       9.3163131533425825e-07 -1.2628198601201743e+02 2.6107397030538833e-02 1.6272693175290749e+02 6.9605564301417377e-01 2.8089372862073168e+02 6.9605807546685039e-01 2.8089416491456768e+02
                       6.5580957051807520e-01 1.9694772342305990e+02 6.9564638958959246e-01 1.0086460219769465e+02 2.1647713643615452e-02 -1.6397187117999488e+02 1.7760943820545050e-02 4.3540569564412800e+02
                       6.5580828569348237e-01 1.9694788775910007e+02 6.9564890331347573e-01 2.8086507560950878e+02 1.7760947778830277e-02 4.3540573573014422e+02 2.1651710254422033e-02 -1.6396215177571870e+02
1.8806308394705881e+14 7.7428875472958972e-02 3.1194377972701307e+02 1.1110178581508041e-06 5.2995159970401012e+01 6.5766610658291280e-01 2.0229832327503516e+02 6.5766470247623565e-01 2.0229848872960994e+02
                       1.2958715938921899e-06 -1.2254552696747506e+02 2.6198427059505827e-02 1.7012520660845706e+02 6.9616062179196503e-01 2.8655705997401463e+02 6.9616291483208859e-01 2.8655748838666074e+02
                       6.5706750037880224e-01 2.0226196358648767e+02 6.9579656206504059e-01 1.0652809381306707e+02 2.2614335025264259e-02 -1.5923594076615342e+02 1.6807127461550487e-02 4.4417303825836586e+02
                       6.5706600090642819e-01 2.0226215219203564e+02 6.9579892436054336e-01 2.8652855604494459e+02 1.6807131062493083e-02 4.4417308259244101e+02 2.2617857645434149e-02 -1.5922610715651490e+02
1.8844097360000000e+14 7.6426116770264646e-02 3.2162243560879324e+02 1.4662902140985143e-06 5.7699097794133387e+01 6.5914848482922028e-01 2.0761601059803053e+02 6.5914688528390342e-01 2.0761619569344347e+02
                       1.6398708910058832e-06 -1.1765429976002414e+02 2.6133529146155098e-02 1.7750942676970325e+02 6.9623817428691859e-01 2.9221991501405648e+02 6.9624033574714295e-01 2.9222033473011089e+02
                       6.5844686804985941e-01 2.0759397984617118e+02 6.9591971632805683e-01 1.1219197147803409e+02 2.3323745014550864e-02 -1.5441029163514207e+02 1.5798161185711972e-02 4.5300053445380706e+02
                       6.5844511193897992e-01 2.0759418777820625e+02 6.9592194529326568e-01 2.9219242163065570e+02 1.5798164569115331e-02 4.5300058406469526e+02 2.3326804401836706e-02 -1.5440041716313797e+02
1.8881886325294116e+14 7.5202415880492660e-02 3.3118000671898125e+02 1.8000698151792057e-06 6.2961865579366695e+01 6.6075544908609152e-01 2.1295725849995588e+02 6.6075362294400963e-01 2.1295745984479623e+02
                       1.9570624130112433e-06 -1.1231462093037331e+02 2.5920483506404482e-02 1.8490808667159601e+02 6.9628763627871038e-01 2.9788238805752559e+02 6.9628967635121841e-01 2.9788279833390675e+02
                       6.5990956669306611e-01 2.1294532547366236e+02 6.9601185690998080e-01 1.1785628734069482e+02 2.3784798523215286e-02 -1.4956527693352558e+02 1.4749440339785334e-02 4.6193989546607872e+02
                       6.5990752761709737e-01 2.1294554734942255e+02 6.9601397290973899e-01 2.9785672482834354e+02 1.4749443626601704e-02 4.6193995182084279e+02 2.3787410598775694e-02 -1.4955539404846073e+02
1.8919675290588234e+14 7.3807153086346111e-02 3.4060065594957518e+02 2.1068449655838973e-06 6.8439053404074286e+01 6.6242748530245188e-01 2.1832419122629958e+02 6.6242540864451427e-01 2.1832440513661817e+02
                       2.2423572126620936e-06 -1.0681975869093867e+02 2.5567697210833899e-02 1.9235051256737324e+02 6.9630798334279076e-01 3.0354457386131497e+02 6.9630991462289404e-01 3.0354497408922163e+02
                       6.6141657946509314e-01 2.1831704779442791e+02 6.9606906129635226e-01 1.2352100134374093e+02 2.4012048302112551e-02 -1.4474942724555206e+02 1.3674813492083564e-02 4.7105282096109971e+02
                       6.6141424677990657e-01 2.1831727822084008e+02 6.9607108610960489e-01 3.0352142594504124e+02 1.3674816764425711e-02 4.7105288605798438e+02 2.4014230966568986e-02 -1.4473954004115251e+02
1.8957464255882353e+14 7.2301099495821891e-02 3.4987065232908498e+02 2.3822213461782813e-06 7.3959213875359865e+01 6.6410055455024963e-01 2.2371771220981697e+02 6.6409821090012777e-01 2.2371793483118398e+02