! Ansys Lumerical
! Created: Fri Oct 7 00:58:56 2022
! Project File: C:/Users/jev1/Documents/GitHub/OTDR/PRL_PDK/CBand_TE0TE1_ysplitter_opt/Simulations/FDTD_SPara(run).fsp
! Touchstone File Format: Version 1.0
! Two-Port Data Order: 21_12
# HZ S MA R 50.00

! Optical Port List
! Port[0] = {"port 1","TE0",1,"LEFT"}
! Port[1] = {"port 1","TE1",2,"LEFT"}
! Port[2] = {"port 2","TE0",1,"RIGHT"}
! Port[3] = {"port 3","TE0",1,"RIGHT"}


! FREQ                 AMP                    PHASE                   AMP                    PHASE                   AMP                    PHASE                   AMP                    PHASE  
1.7634850470588234e+14 1.0108466612966868e-01 9.7036287303015598e+00 2.0055658393496778e-06 -1.0708393328019491e+02 6.3918929880508313e-01 3.6772213212084282e+01 6.3918509554585123e-01 3.6772352126652834e+01
                       2.1330928527238945e-06 -1.0412177238891900e+02 3.9311915132257021e-02 -1.7302958977350357e+02 6.7719851970690403e-01 1.1208791289101696e+02 6.7720275619764125e-01 -6.7911534071716105e+01
                       6.3795491439065488e-01 3.6582806603932120e+01 6.7585702822942140e-01 1.1194300525267593e+02 4.5038977084717990e-02 -1.6909505885545860e+02 3.5457132423021918e-02 6.5607933062306628e+01
                       6.3795027002508931e-01 3.6582974085905718e+01 6.7586152955614331e-01 -6.8056400403171978e+01 3.5457125288187175e-02 6.5607963591285625e+01 4.5036861374803415e-02 -1.6908758396224792e+02
1.7672639435882353e+14 9.8633564684246791e-02 1.8777283507681947e+01 2.1886073718738592e-06 -1.0403925948391075e+02 6.4108033055938130e-01 4.2086290955479150e+01 6.4107592421763915e-01 4.2086415942545955e+01
                       2.2918517887818911e-06 -1.0084588040556578e+02 3.8485341863274958e-02 -1.6437729935957967e+02 6.7793071422256712e-01 1.1772194790985397e+02 6.7793490149866042e-01 -6.2277518941383249e+01
                       6.3971879145591859e-01 4.1916519412709846e+01 6.7681138958757669e-01 1.1757830453150115e+02 4.4437107956872134e-02 -1.6364187360107636e+02 3.3139800958662043e-02 7.5374210445871910e+01
                       6.3971388978178167e-01 4.1916667064413062e+01 6.7681582355387138e-01 -6.2421124909778975e+01 3.3139791101359686e-02 7.5374237440688518e+01 4.4434469521193169e-02 -1.6363497549813815e+02
1.7710428401176469e+14 9.6046644732353970e-02 2.7867381041255634e+01 2.3538697972308991e-06 -1.0106357718882056e+02 6.4298564927623503e-01 4.7419135680257384e+01 6.4298107894333123e-01 4.7419244040084997e+01
                       2.4310063981915745e-06 -9.7773696204430721e+01 3.7313546600588818e-02 -1.5568739574950825e+02 6.7867971411619332e-01 1.2334949150459090e+02 6.7868388695699222e-01 -5.6649993295972500e+01
                       6.4145099088570801e-01 4.7264958138997549e+01 6.7777419469555633e-01 1.2321147223538026e+02 4.3430078436019960e-02 -1.5833301581126929e+02 3.0727056829731317e-02 8.5470540927433404e+01
                       6.4144589089389603e-01 4.7265081631839500e+01 6.7777860667026879e-01 -5.6787979241664907e+01 3.0727045252791248e-02 8.5470563805275475e+01 4.3426987028010414e-02 -1.5832671835406748e+02
1.7748217366470588e+14 9.3375394697408645e-02 3.6988287529494123e+01 2.5071822053019626e-06 -9.8175792335559223e+01 6.4487167171817961e-01 5.2770575637716412e+01 6.4486697863117171e-01 5.2770665483356112e+01
                       2.5578286712666919e-06 -9.4898863276201169e+01 3.5820199912221365e-02 -1.4690649492059742e+02 6.7946900850706138e-01 1.2897231686652586e+02 6.7947319346744339e-01 -5.1027183525745144e+01
                       6.4313617982415527e-01 5.2626544489646932e+01 6.7875665400120344e-01 1.2884387937675595e+02 4.2064822745933747e-02 -1.5320663982697906e+02 2.8255074985907621e-02 9.6002081457403207e+01
                       6.4313094912383417e-01 5.2626640969217263e+01 6.7876108184682971e-01 -5.1155591721515350e+01 2.8255062639844543e-02 9.6002100012317044e+01 4.2061355355185438e-02 -1.5320097640403316e+02
1.7786006331764706e+14 9.0672345240882551e-02 4.6153985401223615e+01 2.6539733655862440e-06 -9.5331165468870736e+01 6.4670618201443641e-01 5.8139955551152390e+01 6.4670140807283083e-01 5.8140025713028159e+01
                       2.6789243874580970e-06 -9.2152517760200993e+01 3.4037815923546523e-02 -1.3797865398295403e+02 6.8031363608673778e-01 1.3459254113334242e+02 6.8031785137325729e-01 -4.5406972301990308e+01
                       6.4476570871637318e-01 5.7999968542110636e+01 6.7976315369910545e-01 1.3447698846739294e+02 4.0396739807766431e-02 -1.4830018420383323e+02 2.5766503862066196e-02 1.0710109478882806e+02
                       6.4476041889470281e-01 5.8000036729286819e+01 6.7976762660535228e-01 -4.5522499374907817e+01 2.5766491547785098e-02 1.0710110924572741e+02 4.0392978521338531e-02 -1.4829519647982443e+02
1.7823795297058822e+14 8.7990019743172929e-02 5.5377741448895456e+01 2.7982281780084124e-06 -9.2446475193616237e+01 6.4845910695022313e-01 6.3526197499122439e+01 6.4845429376751607e-01 6.3526247430133864e+01
                       2.7990667409607709e-06 -8.9426419174175408e+01 3.2007696525256535e-02 -1.2884012270007727e+02 6.8121998880160539e-01 1.4021239021830704e+02 6.8122424491940392e-01 -3.9787133712977912e+01
                       6.4633463355932186e-01 6.3384370394810816e+01 6.8079190659857547e-01 1.4011216268511959e+02 3.8486753008307922e-02 -1.4364822464088840e+02 2.3312356235274931e-02 1.1893459095794556e+02
                       6.4632935537357761e-01 6.3384410564328689e+01 6.8079644458946187e-01 -3.9887338766965797e+01 2.3312344538859848e-02 1.1893460198519455e+02 3.8482782289755497e-02 -1.4364396101216346e+02
1.7861584262352941e+14 8.5379928553902126e-02 6.4671691740190383e+01 2.9417385662706525e-06 -8.9424139568735967e+01 6.5010308471660838e-01 6.8927866138525332e+01 6.5009827305357837e-01 6.8927895836638484e+01
                       2.9204032007722812e-06 -8.6598888223231356e+01 2.9779664899381171e-02 -1.1941292836240505e+02 6.8218641317000117e-01 1.4583398658698860e+02 6.8219071408528076e-01 -3.4165545436147518e+01
                       6.4783823677928287e-01 6.8779380845041985e+01 6.8183622743681860e-01 1.4575052293010012e+02 3.6397572437635368e-02 -1.3927990790748697e+02 2.0954394399180391e-02 1.3170930331181739e+02
                       6.4783303564006633e-01 6.8779394682182343e+01 6.8184084150636115e-01 -3.4248988933954848e+01 2.0954383671133524e-02 1.3170931199343173e+02 3.6393475936113626e-02 -1.3927642165280488e+02
1.7899373227647059e+14 8.2891574434767051e-02 7.4046356058909481e+01 3.0837981972168906e-06 -8.6173666286371599e+01 6.5161383397120254e-01 7.4343231407247288e+01 6.5160906335563418e-01 7.4343241363021917e+01
                       3.0422097360293446e-06 -8.3559434281021282e+01 2.7411720797056404e-02 -1.0959692598666437e+02 6.8320443980319212e-01 1.5145917743967112e+02 6.8320878433251897e-01 -2.8540360498884628e+01
                       6.4926873827095910e-01 7.4185019174426671e+01 6.8288614950343729e-01 1.5139286342058205e+02 3.4189409494725632e-02 -1.3521628312491546e+02 1.8767736895885706e-02 1.4566516652501028e+02
                       6.4926367046179700e-01 7.4185009524165110e+01 6.8289084228537977e-01 -2.8606655762457454e+01 1.8767727276792771e-02 1.4566517429361775e+02 3.4185266589143483e-02 -1.3521363050308676e+02
1.7937162192941175e+14 8.0571438645735877e-02 8.3510109193254934e+01 3.2213685549235347e-06 -8.2626774835090572e+01 6.5297035878203746e-01 7.9770322805404646e+01 6.5296566712731541e-01 7.9770313972627250e+01
                       3.1611988244942860e-06 -8.0226191068284606e+01 2.4969874207043722e-02 -9.9260230106450621e+01 6.8426042912203044e-01 1.5708941403767275e+02 6.8426481227898439e-01 -2.2910127900011290e+01
                       6.5061285026637727e-01 7.9601470542887697e+01 6.8393009322966392e-01 1.5703962589533816e+02 3.1915544756160145e-02 -1.3146820130697344e+02 1.6842357883875218e-02 1.6103810805375687e+02
                       6.5060796027031353e-01 7.9601441079232615e+01 6.8393486006989490e-01 -2.2959897752735365e+01 1.6842349366870672e-02 1.6103811656749107e+02 3.1911427165067362e-02 -1.3146644027808404e+02
1.7974951158235294e+14 7.8461926655680997e-02 9.3068655513833889e+01 3.3496115259142114e-06 -7.8744140588230579e+01 6.5415505029071064e-01 8.5206971286571445e+01 6.5415047337620913e-01 8.5206945066982939e+01
                       3.2722215464866363e-06 -7.6553027922570124e+01 2.2528506251763648e-02 -8.8228998310386544e+01 6.8533740926603226e-01 1.6272568569308984e+02 6.8534182336059213e-01 -1.7273858580687612e+01
                       6.5185068251049216e-01 8.5028786102812475e+01 6.8495634020073348e-01 1.6269092329872990e+02 2.9618316025469604e-02 -1.2803587380153039e+02 1.5279841829189199e-02 1.7796301847792591e+02
                       6.5184600168337548e-01 8.5028740956661338e+01 6.8496117048123228e-01 -1.7308602294839567e+01 1.5279834337692188e-02 1.7796302938416369e+02 2.9614284958999627e-02 -1.2803506460352116e+02
1.8012740123529412e+14 7.6600268837108271e-02 1.0272457406134293e+02 3.4626100821389448e-06 -7.4514611609691812e+01 6.5515376241946410e-01 9.0650837520009830e+01 6.5514933317326196e-01 9.0650795749268156e+01
                       3.3691288127508235e-06 -7.2527456099298689e+01 2.0171574366428153e-02 -7.6280589468397153e+01 6.8641689883150625e-01 1.6836850535073597e+02 6.8642133421226925e-01 -1.1631039820607569e+01
                       6.5295627144823098e-01 9.0466562179523947e+01 6.8595414519566422e-01 1.6834659761140011e+02 2.7326225909986682e-02 -1.2491153297260340e+02 1.4178995609488562e-02 1.9630720510694152e+02
                       6.5295181810792957e-01 9.0466505568912012e+01 6.8595902375751949e-01 -1.1652927798941436e+01 1.4178989057863012e-02 1.9630721962607547e+02 2.7322330366932743e-02 -1.2491174235889225e+02
1.8050529088823528e+14 7.5017393019182491e-02 1.1247701740600139e+02 3.5541030878578621e-06 -6.9949689323079539e+01 6.5595594223289277e-01 9.6099428461694529e+01 6.5595168984197860e-01 9.6099373383620048e+01
                       3.4455853776014102e-06 -6.8163075771960180e+01 1.7994563516554103e-02 -6.3151522202830130e+01 6.8748054599112052e-01 1.7401793862154193e+02 6.8748499142390607e-01 -5.9816062007031370e+00
                       6.5389972844772259e-01 9.5913658416670643e+01 6.8691441508799012e-01 1.7400629407908119e+02 2.5052890268625411e-02 -1.2208677128929300e+02 1.3606263451256102e-02 2.1552208257269464e+02
                       6.5389550926418305e-01 9.5913594322373939e+01 6.8691932361689489e-01 -5.9932294312780341e+00 1.3606257757173978e-02 2.1552210100410846e+02 2.5049167130080964e-02 -1.2208808268240485e+02
1.8088318054117647e+14 7.3736809592401226e-02 1.2232164959610114e+02 3.6181143991805472e-06 -6.5076296100268294e+01 6.5655488317720145e-01 1.0155010731733631e+02 6.5655083212208476e-01 1.0155004153674666e+02
                       3.4957132778286100e-06 -6.3490445212870441e+01 1.6105700927047335e-02 -4.8585477980637606e+01 6.8851146755596004e-01 1.7967366507041527e+02 6.8851591032268211e-01 -3.2587832597591865e-01
                       6.5465072561533411e-01 1.0136800826026837e+02 6.8782997573220939e-01 1.7966953541151642e+02 2.2798392456602007e-02 -1.1956605537328097e+02 1.3562173867832919e-02 2.3471506496674621e+02
                       6.5464673801785767e-01 1.0136794018233172e+02 6.8783489399893138e-01 -3.2998488656837160e-01 1.3562168919242381e-02 2.3471508652636635e+02 2.2794868955243887e-02 -1.1956858751982645e+02
1.8126107019411762e+14 7.2773572143315451e-02 1.3225088755595615e+02 3.6494201794762788e-06 -5.9929968618607020e+01 6.5694814155191683e-01 1.0700010456410283e+02 6.5694431070591497e-01 1.0700003097407416e+02
                       3.5145235702969225e-06 -5.8548937429312211e+01 1.4621887891484305e-02 -3.2458440079704516e+01 6.8949522677461861e-01 1.8533505956497436e+02 6.8949965263564994e-01 5.3355185040950852e+00
                       6.5518281009645740e-01 1.0682656016134442e+02 6.8869551856437627e-01 1.8533578372253908e+02 2.0553285706927021e-02 -1.1738804456410723e+02 1.3971471471034927e-02 2.5300417047624956e+02
                       6.5517904528865023e-01 1.0682649097958246e+02 6.8870042544968901e-01 5.3362675725102680e+00 1.3971467099870877e-02 2.5300419373218190e+02 2.0549984703982664e-02 -1.1739198187545215e+02
1.8163895984705881e+14 7.2133393001678633e-02 1.4225446285259943e+02 3.6438470127134317e-06 -5.4549507667166331e+01 6.5713811627735563e-01 1.1244653922457263e+02 6.5713451821771462e-01 1.1244646091030833e+02
                       3.4981498995406153e-06 -5.3380679931741092e+01 1.3651394294116867e-02 -1.4983899854999329e+01 6.9042043861377322e-01 1.9100128222851222e+02 6.9042483179525838e-01 1.1001744228208311e+01
                       6.5547789465149153e-01 1.1228536749273349e+02 6.8950735676382702e-01 1.9100448373327583e+02 1.8305157735951233e-02 -1.1565771351011182e+02 1.4709439142672059e-02 2.6986271999140325e+02
                       6.5547434075980582e-01 1.1228529943886261e+02 6.8951223103650328e-01 1.1004972330338815e+01 1.4709435149223805e-02 2.6986274350467545e+02 1.8302106219173407e-02 -1.1566335291022206e+02
1.8201684950000000e+14 7.1811999757326120e-02 1.5232025405755786e+02 3.5984212214263823e-06 -4.8973302652994761e+01 6.5713274489822671e-01 1.1788645967968287e+02 6.5712938554723332e-01 1.1788637980680672e+02
                       3.4439236955196846e-06 -4.8026697635369501e+01 1.3259727874725583e-02 3.1401132521373341e+00 6.9127903019089265e-01 1.9667136746039645e+02 6.9128337353505909e-01 1.6671833028872292e+01
                       6.5553023280100442e-01 1.1773982303086353e+02 6.9026312404097090e-01 1.9667508662494754e+02 1.6047666230307227e-02 -1.1459651329570404e+02 1.5641947897491348e-02 2.8517546585366807e+02
                       6.5552687768731011e-01 1.1773975776418659e+02 6.9026794489361687e-01 1.6675580274981773e+01 1.5641944109695442e-02 2.8517548852381373e+02 1.6044907942689698e-02 -1.1460433535269668e+02
1.8239473915294116e+14 7.1794813697284909e-02 1.6243527281305816e+02 3.5114013624610659e-06 -4.3237133014152185e+01 6.5694622217322440e-01 1.2331691177057192e+02 6.5694310083115792e-01 1.2331683346934932e+02
                       3.3503382444356944e-06 -4.2524949643348336e+01 1.3435950167898655e-02 2.0896254367465435e+01 6.9206620947434261e-01 2.0234430498153722e+02 6.9207048483445088e-01 2.2344774373328448e+01
                       6.5534925211858130e-01 1.2318501324083252e+02 6.9096152261709753e-01 2.0234705867764714e+02 1.3792772952720340e-02 -1.1462678683584960e+02 1.6652383118265456e-02 2.9908467964291651e+02
                       6.5534608545765050e-01 1.2318495200550205e+02 6.9096626999395883e-01 2.2347557434248788e+01 1.6652379445762922e-02 2.9908470074550530e+02 1.3790387611838081e-02 -1.1463755862467097e+02
1.8277262880588234e+14 7.2057014907082440e-02 1.7258664337161062e+02 3.3822278172254200e-06 -3.7373125414643432e+01 6.5659960961446318e-01 1.2873503879427722e+02 6.5659671937683406e-01 1.2873496505226493e+02
                       3.2169466154059120e-06 -3.6909886272782700e+01 1.4091923646768869e-02 3.7407124329755710e+01 6.9278020781944716e-01 2.0801910840287533e+02 6.9278439670703806e-01 2.8019581589463304e+01
                       6.5496077530367691e-01 1.2861615095931649e+02 6.9160218123851724e-01 2.0801988165838483e+02 1.1589335947548617e-02 -1.1651862482453571e+02 1.7650351579538662e-02 3.1182597228559479e+02
                       6.5495778965108109e-01 1.2861609479072916e+02 6.9160683600958384e-01 2.8020385356448180e+01 1.7650348040976538e-02 3.1182599140916614e+02 1.1587470354416166e-02 -1.1653350672764013e+02
1.8315051845882353e+14 7.2564034762564580e-02 1.8276241385475421e+02 3.2114206989531333e-06 -3.1409583096520425e+01 6.5612118251091811e-01 1.3413821349977954e+02 6.5611851099651597e-01 1.3413814707361880e+02
                       3.0442319210406505e-06 -3.1213282047202917e+01 1.5098953391929347e-02 5.2262364138950247e+01 6.9342186390626459e-01 2.1369486903443419e+02 6.9342594832523896e-01 3.3695345692868997e+01
                       6.5440638083110236e-01 1.3402903393321134e+02 6.9218563202680805e-01 2.1369305252311162e+02 9.5560928372547937e-03 -1.2160494660186386e+02 1.8570037932245553e-02 3.2363469141803273e+02
                       6.5440357156819873e-01 1.3402898387502708e+02 6.9219017607264488e-01 3.3693560802738304e+01 1.8570034653709561e-02 3.2363470841179878e+02 9.5550088186165654e-03 -1.2162534574597764e+02
1.8352840811176469e+14 7.3272489250476386e-02 1.9295207959624753e+02 3.0004527198199393e-06 -2.5371516004158412e+01 6.5554636107381037e-01 1.3952419681745170e+02 6.5554389134270341e-01 1.3952414017048375e+02
                       2.8334801239620050e-06 -2.5466350470301318e+01 1.6329162481381533e-02 6.5480440839330413e+01 6.9399411164729397e-01 2.1937079436978934e+02 6.9399807499442068e-01 3.9371273895891093e+01
                       6.5374091227499076e-01 1.3942047195781700e+02 6.9271336913246939e-01 2.1936608855894968e+02 7.9382243226325394e-03 -1.3176709787433569e+02 1.9365433747509788e-02 3.3471067607100866e+02
                       6.5373827649434801e-01 1.3942042925003827e+02 6.9271778540444839e-01 3.9366600879470525e+01 1.9365430938332963e-02 3.3471069101331875e+02 7.9383290242813851e-03 -1.3179310566053911e+02
1.8390629776470588e+14 7.4131539926734116e-02 2.0314676879508551e+02 2.7516183678962530e-06 -1.9281861973965636e+01 6.5491709725368730e-01 1.4489131247728599e+02 6.5491480877554120e-01 1.4489126774441397e+02
                       2.5866766558113117e-06 -1.9703574002631182e+01 1.7676900439675972e-02 7.7298867923687183e+01 6.9450142601483755e-01 2.2504623187486035e+02 6.9450525390189255e-01 4.5046713421987491e+01
                       6.5302840367325055e-01 1.4478862765084332e+02 6.9318792235334747e-01 2.2503854119472487e+02 7.1386541706793660e-03 -1.4770052877728278e+02 2.0005740614871800e-02 3.4521246167343696e+02
                       6.5302593823700361e-01 1.4478859385364555e+02 6.9319219496561446e-01 4.5039056840530122e+01 2.0005738530219204e-02 3.4521247484280690e+02 7.1403018197481755e-03 -1.4772655359924153e+02
1.8428418741764706e+14 7.5084645427333160e-02 2.1333911303211204e+02 2.4679150905306035e-06 -1.3163648946190721e+01 6.5428063766449240e-01 1.5023862169397901e+02 6.5427850721038816e-01 1.5023859066999637e+02
                       2.3064394103409313e-06 -1.3969569870088680e+01 1.9061848756148157e-02 8.8006891221294879e+01 6.9494927108231563e-01 2.3072067946800288e+02 6.9495295194612017e-01 5.0721162006601496e+01
                       6.5233691242272396e-01 1.5013322548514586e+02 6.9361287058285570e-01 2.3071001817955354e+02 7.4917644364153489e-03 -1.6505078821623380e+02 2.0471817735780284e-02 3.5526240967948286e+02
                       6.5233461156432082e-01 1.5013320251267123e+02 6.9361698497732227e-01 5.0710536260908704e+01 2.0471816636382409e-02 3.5526242151660585e+02 7.4947187663211767e-03 -1.6506733591094388e+02
1.8466207707058822e+14 7.6071645558148812e-02 2.2352287784658765e+02 2.1529463127744033e-06 -7.0439042794355551e+00 6.5368765108530535e-01 1.5556607856846222e+02 6.5368565345578589e-01 1.5556606271213900e+02
                       1.9959940188714179e-06 -8.3325623974199825e+00 2.0424331701640264e-02 9.7866347736888216e+01 6.9534358536637209e-01 2.3639378453471457e+02 6.9534711077609535e-01 5.6394266923264539e+01
                       6.5173290777312654e-01 1.5545560025537679e+02 6.9399273349387414e-01 2.3638021056981376e+02 8.8643630387842658e-03 -1.7747365659910702e+02 2.0753618637030413e-02 3.6495435984929503e+02
                       6.5173076069763458e-01 1.5545559030781632e+02 6.9399667670019072e-01 5.6380730022765810e+01 2.0753618755214635e-02 3.6495437091047376e+02 8.8679249320937643e-03 -1.7747946866281336e+02
1.8503996672352941e+14 7.7031101620225209e-02 2.3369245122171398e+02 1.8108504391260004e-06 -9.6165176095921590e-01 6.5318978778341630e-01 1.6087464554587578e+02 6.5318789634076468e-01 1.6087464599030540e+02
                       1.6591975600439332e-06 -2.9148111317334253e+00 2.1719610236757791e-02 1.0708870768586529e+02 6.9569033123911528e-01 2.4206533360198006e+02 6.9569369587449825e-01 6.2065814657594338e+01
                       6.5127592458513472e-01 1.6075857820251869e+02 6.9433271059625157e-01 2.4204891875392369e+02 1.0828785817453328e-02 -1.8373777000653263e+02 2.0848342746119245e-02 3.7436078039369704e+02
                       6.5127391353771091e-01 1.6075858360189781e+02 6.9433647158771694e-01 6.2049438343716638e+01 2.0848344263906152e-02 3.7436079130408689e+02 1.0832451631964751e-02 -1.8373714981760577e+02
1.8541785637647059e+14 7.7902800701192557e-02 2.4384228307149590e+02 1.4462559736702958e-06 5.0124355833834402e+00 6.5283681652570080e-01 1.6616634972611925e+02 6.5283500355528290e-01 1.6616636728650724e+02
                       1.3006418652952905e-06 2.0249565942428469e+00 2.2913524789650745e-02 1.1583625081965656e+02 6.9599512746923264e-01 2.4773523498826307e+02 6.9599832881348644e-01 6.7735713545599367e+01
                       6.5101414315334927e-01 1.6604620857935316e+02 6.9463827633674158e-01 2.4771607107780292e+02 1.3037530170729698e-02 -1.8561599549037098e+02 2.0759044945152232e-02 3.8353865369171530e+02
                       6.5101224236205324e-01 1.6604623153185688e+02 6.9464184646293603e-01 6.7716589409924069e+01 2.0759047985589210e-02 3.8353866510925553e+02 1.3041070510252908e-02 -1.8561225608225388e+02
1.8579574602941175e+14 7.8630319058436260e-02 2.5396634719210206e+02 1.0642667952593751e-06 1.0714391313564105e+01 6.5267355194491916e-01 1.7144426522212800e+02 6.5267178891519650e-01 1.7144430039505121e+02
                       9.2601321265376668e-07 5.8050107931927313e+00 2.3979738541699221e-02 1.2423065105324788e+02 6.9626297627958000e-01 2.5340349687158357e+02 6.9626601413002565e-01 7.3403971821773553e+01
                       6.5098139919047660e-01 1.7132338616745884e+02 6.9491467818476615e-01 2.5338172962270423e+02 1.5279924995203495e-02 -1.8477495069078850e+02 2.0493515948932003e-02 3.9253413801816430e+02
                       6.5097957495417735e-01 1.7132342848957725e+02 6.9491805164461007e-01 7.3382245164846083e+01 2.0493520577525411e-02 3.9253415061697604e+02 1.5283244015105085e-02 -1.8476979548676837e+02
1.8617363568235294e+14 7.9163532007171578e-02 2.6405767073871522e+02 6.7053717443539001e-07 1.5608163521167054e+01 6.5273682940760036e-01 1.7671241379922088e+02 6.5273508722147333e-01 1.7671246675159171e+02
                       5.4398858544749565e-07 5.8272143910967591e+00 2.4898185992905036e-02 1.3236235355338167e+02 6.9649808824769832e-01 2.5907020325520739e+02 6.9650096418202134e-01 7.9070673561462442e+01
                       6.5119588768685910e-01 1.7659542134283541e+02 6.9516641239372678e-01 2.5904608004870022e+02 1.7428125037077500e-02 -1.8226240373488639e+02 2.0063312779450483e-02 4.0138626441852978e+02
                       6.5119409969202446e-01 1.7659548419689287e+02 6.9516958670029838e-01 7.9046591165661198e+01 2.0063319009912890e-02 4.0138627889533137e+02 1.7431181201240264e-02 -1.8225665212975278e+02
1.8655152533529412e+14 7.9460956430344246e-02 2.7410795441712355e+02 2.7234223709729701e-07 1.6066860172696547e+01 6.5305279923600523e-01 1.8197558488785049e+02 6.5305104856384699e-01 1.8197565543828688e+02
                       1.9233134005265794e-07 -2.0628756201095072e+01 2.5654258514083154e-02 1.4029869900499804e+02 6.9670379992842468e-01 2.6473549020436531e+02 6.9670651686678475e-01 8.4735954896633856e+01
                       6.5166054392603989e-01 1.8186761986992695e+02 6.9539676300823972e-01 2.6470940556156194e+02 1.9399382545817405e-02 -1.7870136060685894e+02 1.9482870435801766e-02 4.1012994167372170e+02
                       6.5165874767002996e-01 1.8186770355459828e+02 6.9539973939002542e-01 8.4709910563587528e+01 1.9482878234103877e-02 4.1012995877417296e+02 1.9402158516220888e-02 -1.7869541381121653e+02
1.8692941498823528e+14 7.9491817844083601e-02 2.8410729436921105e+02 1.4074542962895931e-07 -1.2807894935100074e+02 6.5363479403516034e-01 1.8723908548851500e+02 6.5363300579455041e-01 1.8723917308743410e+02
                       3.0403295867038019e-07 -1.1797759380326879e+02 2.6238350335851247e-02 1.4809044984531005e+02 6.9688257079004845e-01 2.7039952442424783e+02 6.9688513276262598e-01 9.0399982580454420e+01
                       6.5236481901961030e-01 1.8714492814393270e+02 6.9560748158790908e-01 2.7037204824612604e+02 2.1138335317487100e-02 -1.7447268774934099e+02 1.8768664114015711e-02 4.1879849887148157e+02
                       6.5236296903022872e-01 1.8714503197689970e+02 6.9561026527057623e-01 9.0372545449573380e+01 1.8768673396808665e-02 4.1879851942707148e+02 2.1140827135061910e-02 -1.7446674804957840e+02
1.8730730464117647e+14 7.9237746255915828e-02 2.9404401583705817e+02 5.2970394463720086e-07 -1.3617516709559345e+02 6.5448197396716556e-01 1.9250843899708389e+02 6.5448011997325151e-01 1.9250854271376923e+02
                       6.7379592996677838e-07 -1.2741091926616832e+02 2.6645505515847750e-02 1.5577689159960028e+02 6.9703603893239940e-01 2.7606248572287257e+02 6.9703845110514728e-01 9.6062936447693133e+01
                       6.5328736843963531e-01 1.9243168257304760e+02 6.9579866031009197e-01 2.7603436352016934e+02 2.2609000492178115e-02 -1.6982055634801864e+02 1.7938419119222743e-02 4.2742594768605977e+02
                       6.5328542184518568e-01 1.9243180488771489e+02 6.9580126062813175e-01 9.6034851317835603e+01 1.7938429746180630e-02 4.2742597264775753e+02 2.2611213346212768e-02 -1.6981472649904251e+02
1.8768519429411762e+14 7.8694021801360176e-02 3.0390463864952136e+02 9.1171771967830102e-07 -1.3202535219702656e+02 6.5557888183296598e-01 1.9778905815435184e+02 6.5557693559632069e-01 1.9778917667908320e+02
                       1.0456630584631663e-06 -1.2545163874868344e+02 2.6875010674099833e-02 1.6338977718909567e+02 6.9716511032682515e-01 2.8172455417300472e+02 6.9716737926775008e-01 1.0172499658602884e+02
                       6.5439907747936932e-01 1.9773147832299040e+02 6.9596881540618416e-01 2.8169667476648522e+02 2.3790737031000823e-02 -1.6490899246473495e+02 1.7010385398834163e-02 4.3604911374976854e+02
                       6.5439699742348667e-01 1.9773161658231348e+02 6.9597124570427327e-01 1.0169715170361590e+02 1.7010397162043698e-02 4.3604914420327617e+02 2.3792683058310653e-02 -1.6490332166882260e+02
1.8806308394705881e+14 7.7870309165105331e-02 3.1367401378804095e+02 1.2763072014384386e-06 -1.2666001203998138e+02 6.5689595305966808e-01 2.0308592013538842e+02 6.5689389066573334e-01 2.0308605180255495e+02
                       1.4015242530112823e-06 -1.2116594409144837e+02 2.6929862708276516e-02 1.7095634711297407e+02 6.9727005511938955e-01 2.8738590192948237e+02 6.9727218921910350e-01 1.0738633517274593e+02
                       6.5566587070158522e-01 2.0304714825678258e+02 6.9611515912482347e-01 2.8735923504664663e+02 2.4675639720014176e-02 -1.5985238858362774e+02 1.6002706822759338e-02 4.4470977709961073e+02
                       6.5566362912069998e-01 2.0304729926841287e+02 6.9611743642355850e-01 1.0735969989765312e+02 1.6002719438683165e-02 4.4470981424914419e+02 2.4677336221636363e-02 -1.5984689435646558e+02
1.8844097360000000e+14 7.6790835357441231e-02 3.2333569608844988e+02 1.6177475477369919e-06 -1.2100104268259035e+02 6.5839093717236752e-01 2.0840327084635396e+02 6.5838873814681365e-01 2.0840341368081002e+02
                       1.7337631457835282e-06 -1.1609733146750985e+02 2.6816106063875977e-02 1.7850159751635402e+02 6.9735058757952639e-01 2.9304668879347099e+02 6.9735259748821177e-01 1.1304711206406105e+02
                       6.5705088088839170e-01 2.0838082290681851e+02 6.9623400476388397e-01 2.9302220125226654e+02 2.5266293566785447e-02 -1.5473241543069142e+02 1.4932922550152864e-02 4.5345698408898375e+02
                       6.5704846026991226e-01 2.0838098310822284e+02 6.9623614918248822e-01 1.1302265309261246e+02 1.4932935660100885e-02 4.5345702920174313e+02 2.5267761096292300e-02 -1.5472709422056090e+02
1.8881886325294116e+14 7.5493975051221560e-02 3.3287264576378612e+02 1.9314159367014081e-06 -1.1530488823821926e+02 6.6001110868757906e-01 2.1374438111855352e+02 6.6000875674120429e-01 2.1374453290312448e+02
                       2.0369414243500964e-06 -1.1074003798750576e+02 2.6542081982587389e-02 1.8604991531899753e+02 6.9740591357281156e-01 2.9870705989262359e+02 6.9740781249277817e-01 1.1870747250022941e+02
                       6.5851575372404525e-01 2.1373403050356157e+02 6.9632122764613580e-01 2.9868562345820868e+02 2.5573475245002683e-02 -1.4960774942092263e+02 1.3817639355993340e-02 4.6234976013041739e+02
                       6.5851314762127622e-01 2.1373419627581893e+02 6.9632326159443469e-01 1.1868606172582433e+02 1.3817652539326031e-02 4.6234981444121814e+02 2.5574735447001885e-02 -1.4960258189430635e+02
1.8919675290588234e+14 7.4031209251694291e-02 3.4226837195006044e+02 2.2138820240679139e-06 -1.0968900732127074e+02 6.6169608588556017e-01 2.1911137063920472e+02 6.6169356944333746e-01 2.1911152899713287e+02
                       2.3071128295922045e-06 -1.0531765979718095e+02 2.6117663055682694e-02 1.9362616511820323e+02 6.9743474016603524e-01 3.0436714341417473e+02 6.9743654385048681e-01 1.2436754485728352e+02
                       6.6002109274542919e-01 2.1910779406034567e+02 6.9637269954636571e-01 3.0434944916294910e+02 2.5613709603784392e-02 -1.4452002047880180e+02 1.2672410362444689e-02 4.7146058388258700e+02
                       6.6001830501455749e-01 2.1910796202612545e+02 6.9637464671818272e-01 1.2434987370391383e+02 1.2672423163444906e-02 4.7146064846585205e+02 2.5614782881308872e-02 -1.4451497439235240e+02
1.8957464255882353e+14 7.2465417287240097e-02 3.5150862910394864e+02 2.4631538928683591e-06 -1.0422655149187077e+02 6.6338104113475449e-01 2.2450510746844984e+02 6.6337835358496511e-01 2.2450526995155846e+02